# OOMMF OVF 2.0
#
# Segment count: 000011
#
# Begin: Segment
# Begin: Header
#
# Title: SPIRIT Version 2.1.1 (14ed7782bd23f)
#
# Desc: LLG simulation (Limited memory Broyden-Fletcher-Goldfarb-Shanno using stereographic atlas solver)
# Desc:      Iteration: 75
# Desc:      Maximum torque: 9.7818e-09
#
# valuedim: 3   ## field dimensionality
# valueunits: none none none
# valuelabels: spin_x spin_y spin_z
#
## Fundamental mesh measurement unit. Treated as a label:
# meshunit: nm
#
# xmin: 0
# ymin: 0
# zmin: 0
# xmax: 1.5
# ymax: 1.5
# zmax: 0
#
# meshtype: rectangular
# xbase: 0
# ybase: 0
# zbase: 0
# xstepsize: 0.1
# ystepsize: 0.1
# zstepsize: 0.1
# xnodes: 16
# ynodes: 16
# znodes: 1
#
# End: Header
#
# Begin: Data Text
        0.004540013376       -0.004540013376        0.999979388066
        0.006034045713       -0.013484289386        0.999890876162
        0.009213293793       -0.021812598487        0.999719623577
        0.014325296380       -0.028486832236        0.999491513857
        0.021363277487       -0.031816909858        0.999265377476
        0.029605679433       -0.029883796046        0.999114839485
        0.037298854702       -0.021598498759        0.999070718362
        0.042044203883       -0.007913161434        0.999084414249
        0.042044203883        0.007913161434        0.999084414249
        0.037298854702        0.021598498759        0.999070718362
        0.029605679433        0.029883796046        0.999114839485
        0.021363277487        0.031816909858        0.999265377476
        0.014325296380        0.028486832236        0.999491513857
        0.009213293793        0.021812598487        0.999719623577
        0.006034045713        0.013484289386        0.999890876162
        0.004540013376        0.004540013376        0.999979388066
        0.013484289386       -0.006034045713        0.999890876162
        0.018179012017       -0.018179012017        0.999669468897
        0.028312619343       -0.030215635494        0.999142337686
        0.044968980943       -0.040954109476        0.998148561924
        0.068531328845       -0.047727905623        0.996506650250
        0.096915845483       -0.046719025997        0.994195479523
        0.124052066835       -0.034886128203        0.991662262453
        0.141048661550       -0.013011822319        0.989917151864
        0.141048661550        0.013011822319        0.989917151864
        0.124052066835        0.034886128203        0.991662262453
        0.096915845483        0.046719025997        0.994195479523
        0.068531328845        0.047727905623        0.996506650250
        0.044968980943        0.040954109476        0.998148561924
        0.028312619343        0.030215635494        0.999142337686
        0.018179012017        0.018179012017        0.999669468897
        0.013484289386        0.006034045713        0.999890876162
        0.021812598487       -0.009213293793        0.999719623577
        0.030215635494       -0.028312619343        0.999142337686
        0.048846198070       -0.048846198070        0.997611195741
        0.080757603565       -0.069616675184        0.994299616817
        0.128242374759       -0.085842227178        0.988020751477
        0.188485563162       -0.088652319808        0.978066438782
        0.248563358965       -0.068968686827        0.966157118080
        0.287150754468       -0.026289946688        0.957524559952
        0.287150754468        0.026289946688        0.957524559952
        0.248563358965        0.068968686827        0.966157118080
        0.188485563162        0.088652319808        0.978066438782
        0.128242374759        0.085842227178        0.988020751477
        0.080757603565        0.069616675184        0.994299616817
        0.048846198070        0.048846198070        0.997611195741
        0.030215635494        0.028312619343        0.999142337686
        0.021812598487        0.009213293793        0.999719623577
        0.028486832236       -0.014325296380        0.999491513857
        0.040954109476       -0.044968980943        0.998148561924
        0.069616675184       -0.080757603565        0.994299616817
        0.121523103067       -0.121523103067        0.985121449793
        0.204181284982       -0.159335636268        0.965878956121
        0.316336661636       -0.174362838516        0.932485236907
        0.433853265293       -0.141582391822        0.889789733881
        0.511143955775       -0.055149853105        0.857723935877
        0.511143955775        0.055149853105        0.857723935877
        0.433853265293        0.141582391822        0.889789733881
        0.316336661636        0.174362838516        0.932485236907
        0.204181284982        0.159335636268        0.965878956121
        0.121523103067        0.121523103067        0.985121449793
        0.069616675184        0.080757603565        0.994299616817
        0.040954109476        0.044968980943        0.998148561924
        0.028486832236        0.014325296380        0.999491513857
        0.031816909858       -0.021363277487        0.999265377476
        0.047727905623       -0.068531328845        0.996506650250
        0.085842227178       -0.128242374759        0.988020751477
        0.159335636268       -0.204181284982        0.965878956121
        0.285474557309       -0.285474557309        0.914881715993
        0.468680736382       -0.331329567822        0.818876721388
        0.667534473747       -0.279720576312        0.690039220297
        0.798265558081       -0.110770281506        0.592032130476
        0.798265558081        0.110770281506        0.592032130476
        0.667534473747        0.279720576312        0.690039220297
        0.468680736382        0.331329567822        0.818876721388
        0.285474557309        0.285474557309        0.914881715993
        0.159335636268        0.204181284982        0.965878956121
        0.085842227178        0.128242374759        0.988020751477
        0.047727905623        0.068531328845        0.996506650250
        0.031816909858        0.021363277487        0.999265377476
        0.029883796046       -0.029605679433        0.999114839485
        0.046719025997       -0.096915845483        0.994195479523
        0.088652319808       -0.188485563162        0.978066438782
        0.174362838516       -0.316336661636        0.932485236907
        0.331329567822       -0.468680736382        0.818876721388
        0.569308263893       -0.569308263893        0.593107242685
        0.822974945838       -0.488622211240        0.289759509259
        0.978838071823       -0.193000005788        0.068022253097
        0.978838071823        0.193000005788        0.068022253097
        0.822974945838        0.488622211240        0.289759509259
        0.569308263893        0.569308263893        0.593107242685
        0.331329567822        0.468680736382        0.818876721388
        0.174362838516        0.316336661636        0.932485236907
        0.088652319808        0.188485563162        0.978066438782
        0.046719025997        0.096915845483        0.994195479523
        0.029883796046        0.029605679433        0.999114839485
        0.021598498759       -0.037298854702        0.999070718362
        0.034886128203       -0.124052066835        0.991662262453
        0.068968686827       -0.248563358965        0.966157118080
        0.141582391822       -0.433853265293        0.889789733881
        0.279720576312       -0.667534473747        0.690039220297
        0.488622211240       -0.822974945838        0.289759509259
        0.690672816870       -0.690672816870       -0.214341130150
        0.795455316238       -0.264608756390       -0.545190834397
        0.795455316238        0.264608756390       -0.545190834397
        0.690672816870        0.690672816870       -0.214341130150
        0.488622211240        0.822974945838        0.289759509259
        0.279720576312        0.667534473747        0.690039220297
        0.141582391822        0.433853265293        0.889789733881
        0.068968686827        0.248563358965        0.966157118080
        0.034886128203        0.124052066835        0.991662262453
        0.021598498759        0.037298854702        0.999070718362
        0.007913161434       -0.042044203883        0.999084414249
        0.013011822319       -0.141048661550        0.989917151864
        0.026289946688       -0.287150754468        0.957524559952
        0.055149853105       -0.511143955775        0.857723935877
        0.110770281506       -0.798265558081        0.592032130476
        0.193000005788       -0.978838071823        0.068022253097
        0.264608756390       -0.795455316238       -0.545190834397
        0.295625642759       -0.295625642759       -0.908411227741
        0.295625642759        0.295625642759       -0.908411227741
        0.264608756390        0.795455316238       -0.545190834397
        0.193000005788        0.978838071823        0.068022253097
        0.110770281506        0.798265558081        0.592032130476
        0.055149853105        0.511143955775        0.857723935877
        0.026289946688        0.287150754468        0.957524559952
        0.013011822319        0.141048661550        0.989917151864
        0.007913161434        0.042044203883        0.999084414249
       -0.007913161434       -0.042044203883        0.999084414249
       -0.013011822319       -0.141048661550        0.989917151864
       -0.026289946688       -0.287150754468        0.957524559952
       -0.055149853105       -0.511143955775        0.857723935877
       -0.110770281506       -0.798265558081        0.592032130476
       -0.193000005788       -0.978838071823        0.068022253097
       -0.264608756390       -0.795455316238       -0.545190834397
       -0.295625642759       -0.295625642759       -0.908411227741
       -0.295625642759        0.295625642759       -0.908411227741
       -0.264608756390        0.795455316238       -0.545190834397
       -0.193000005788        0.978838071823        0.068022253097
       -0.110770281506        0.798265558081        0.592032130476
       -0.055149853105        0.511143955775        0.857723935877
       -0.026289946688        0.287150754468        0.957524559952
       -0.013011822319        0.141048661550        0.989917151864
       -0.007913161434        0.042044203883        0.999084414249
       -0.021598498759       -0.037298854702        0.999070718362
       -0.034886128203       -0.124052066835        0.991662262453
       -0.068968686827       -0.248563358965        0.966157118080
       -0.141582391822       -0.433853265293        0.889789733881
       -0.279720576312       -0.667534473747        0.690039220297
       -0.488622211240       -0.822974945838        0.289759509259
       -0.690672816870       -0.690672816870       -0.214341130150
       -0.795455316238       -0.264608756390       -0.545190834397
       -0.795455316238        0.264608756390       -0.545190834397
       -0.690672816870        0.690672816870       -0.214341130150
       -0.488622211240        0.822974945838        0.289759509259
       -0.279720576312        0.667534473747        0.690039220297
       -0.141582391822        0.433853265293        0.889789733881
       -0.068968686827        0.248563358965        0.966157118080
       -0.034886128203        0.124052066835        0.991662262453
       -0.021598498759        0.037298854702        0.999070718362
       -0.029883796046       -0.029605679433        0.999114839485
       -0.046719025997       -0.096915845483        0.994195479523
       -0.088652319808       -0.188485563162        0.978066438782
       -0.174362838516       -0.316336661636        0.932485236907
       -0.331329567822       -0.468680736382        0.818876721388
       -0.569308263893       -0.569308263893        0.593107242685
       -0.822974945838       -0.488622211240        0.289759509259
       -0.978838071823       -0.193000005788        0.068022253097
       -0.978838071823        0.193000005788        0.068022253097
       -0.822974945838        0.488622211240        0.289759509259
       -0.569308263893        0.569308263893        0.593107242685
       -0.331329567822        0.468680736382        0.818876721388
       -0.174362838516        0.316336661636        0.932485236907
       -0.088652319808        0.188485563162        0.978066438782
       -0.046719025997        0.096915845483        0.994195479523
       -0.029883796046        0.029605679433        0.999114839485
       -0.031816909858       -0.021363277487        0.999265377476
       -0.047727905623       -0.068531328845        0.996506650250
       -0.085842227178       -0.128242374759        0.988020751477
       -0.159335636268       -0.204181284982        0.965878956121
       -0.285474557309       -0.285474557309        0.914881715993
       -0.468680736382       -0.331329567822        0.818876721388
       -0.667534473747       -0.279720576312        0.690039220297
       -0.798265558081       -0.110770281506        0.592032130476
       -0.798265558081        0.110770281506        0.592032130476
       -0.667534473747        0.279720576312        0.690039220297
       -0.468680736382        0.331329567822        0.818876721388
       -0.285474557309        0.285474557309        0.914881715993
       -0.159335636268        0.204181284982        0.965878956121
       -0.085842227178        0.128242374759        0.988020751477
       -0.047727905623        0.068531328845        0.996506650250
       -0.031816909858        0.021363277487        0.999265377476
       -0.028486832236       -0.014325296380        0.999491513857
       -0.040954109476       -0.044968980943        0.998148561924
       -0.069616675184       -0.080757603565        0.994299616817
       -0.121523103067       -0.121523103067        0.985121449793
       -0.204181284982       -0.159335636268        0.965878956121
       -0.316336661636       -0.174362838516        0.932485236907
       -0.433853265293       -0.141582391822        0.889789733881
       -0.511143955775       -0.055149853105        0.857723935877
       -0.511143955775        0.055149853105        0.857723935877
       -0.433853265293        0.141582391822        0.889789733881
       -0.316336661636        0.174362838516        0.932485236907
       -0.204181284982        0.159335636268        0.965878956121
       -0.121523103067        0.121523103067        0.985121449793
       -0.069616675184        0.080757603565        0.994299616817
       -0.040954109476        0.044968980943        0.998148561924
       -0.028486832236        0.014325296380        0.999491513857
       -0.021812598487       -0.009213293793        0.999719623577
       -0.030215635494       -0.028312619343        0.999142337686
       -0.048846198070       -0.048846198070        0.997611195741
       -0.080757603565       -0.069616675184        0.994299616817
       -0.128242374759       -0.085842227178        0.988020751477
       -0.188485563162       -0.088652319808        0.978066438782
       -0.248563358965       -0.068968686827        0.966157118080
       -0.287150754468       -0.026289946688        0.957524559952
       -0.287150754468        0.026289946688        0.957524559952
       -0.248563358965        0.068968686827        0.966157118080
       -0.188485563162        0.088652319808        0.978066438782
       -0.128242374759        0.085842227178        0.988020751477
       -0.080757603565        0.069616675184        0.994299616817
       -0.048846198070        0.048846198070        0.997611195741
       -0.030215635494        0.028312619343        0.999142337686
       -0.021812598487        0.009213293793        0.999719623577
       -0.013484289386       -0.006034045713        0.999890876162
       -0.018179012017       -0.018179012017        0.999669468897
       -0.028312619343       -0.030215635494        0.999142337686
       -0.044968980943       -0.040954109476        0.998148561924
       -0.068531328845       -0.047727905623        0.996506650250
       -0.096915845483       -0.046719025997        0.994195479523
       -0.124052066835       -0.034886128203        0.991662262453
       -0.141048661550       -0.013011822319        0.989917151864
       -0.141048661550        0.013011822319        0.989917151864
       -0.124052066835        0.034886128203        0.991662262453
       -0.096915845483        0.046719025997        0.994195479523
       -0.068531328845        0.047727905623        0.996506650250
       -0.044968980943        0.040954109476        0.998148561924
       -0.028312619343        0.030215635494        0.999142337686
       -0.018179012017        0.018179012017        0.999669468897
       -0.013484289386        0.006034045713        0.999890876162
       -0.004540013376       -0.004540013376        0.999979388066
       -0.006034045713       -0.013484289386        0.999890876162
       -0.009213293793       -0.021812598487        0.999719623577
       -0.014325296380       -0.028486832236        0.999491513857
       -0.021363277487       -0.031816909858        0.999265377476
       -0.029605679433       -0.029883796046        0.999114839485
       -0.037298854702       -0.021598498759        0.999070718362
       -0.042044203883       -0.007913161434        0.999084414249
       -0.042044203883        0.007913161434        0.999084414249
       -0.037298854702        0.021598498759        0.999070718362
       -0.029605679433        0.029883796046        0.999114839485
       -0.021363277487        0.031816909858        0.999265377476
       -0.014325296380        0.028486832236        0.999491513857
       -0.009213293793        0.021812598487        0.999719623577
       -0.006034045713        0.013484289386        0.999890876162
       -0.004540013376        0.004540013376        0.999979388066
# End: Data Text
# End: Segment
#
# Begin: Segment
# Begin: Header
#
# Title: SPIRIT Version 2.1.1 (14ed7782bd23f)
#
# Desc: LLG simulation (Limited memory Broyden-Fletcher-Goldfarb-Shanno using exponential transforms solver)
# Desc:      Iteration: 69
# Desc:      Maximum torque: 8.65724e-09
#
# valuedim: 3   ## field dimensionality
# valueunits: none none none
# valuelabels: spin_x spin_y spin_z
#
## Fundamental mesh measurement unit. Treated as a label:
# meshunit: nm
#
# xmin: 0
# ymin: 0
# zmin: 0
# xmax: 1.5
# ymax: 1.5
# zmax: 0
#
# meshtype: rectangular
# xbase: 0
# ybase: 0
# zbase: 0
# xstepsize: 0.1
# ystepsize: 0.1
# zstepsize: 0.1
# xnodes: 16
# ynodes: 16
# znodes: 1
#
# End: Header
#
# Begin: Data Text
        0.004540013513       -0.004540013513        0.999979388065
        0.006034045691       -0.013484289708        0.999890876158
        0.009213293824       -0.021812598927        0.999719623567
        0.014325296500       -0.028486832591        0.999491513845
        0.021363277365       -0.031816910097        0.999265377471
        0.029605679962       -0.029883796460        0.999114839457
        0.037298854616       -0.021598499083        0.999070718359
        0.042044204181       -0.007913161556        0.999084414236
        0.042044204181        0.007913161556        0.999084414236
        0.037298854616        0.021598499083        0.999070718359
        0.029605679962        0.029883796460        0.999114839457
        0.021363277365        0.031816910097        0.999265377471
        0.014325296500        0.028486832591        0.999491513845
        0.009213293824        0.021812598927        0.999719623567
        0.006034045691        0.013484289708        0.999890876158
        0.004540013513        0.004540013513        0.999979388065
        0.013484289708       -0.006034045691        0.999890876158
        0.018179012260       -0.018179012260        0.999669468888
        0.028312619448       -0.030215635890        0.999142337672
        0.044968981002       -0.040954109767        0.998148561909
        0.068531329399       -0.047727906099        0.996506650189
        0.096915845636       -0.046719026312        0.994195479493
        0.124052067495       -0.034886128547        0.991662262358
        0.141048661876       -0.013011822427        0.989917151816
        0.141048661876        0.013011822427        0.989917151816
        0.124052067495        0.034886128547        0.991662262358
        0.096915845636        0.046719026312        0.994195479493
        0.068531329399        0.047727906099        0.996506650189
        0.044968981002        0.040954109767        0.998148561909
        0.028312619448        0.030215635890        0.999142337672
        0.018179012260        0.018179012260        0.999669468888
        0.013484289708        0.006034045691        0.999890876158
        0.021812598927       -0.009213293824        0.999719623567
        0.030215635890       -0.028312619448        0.999142337672
        0.048846198306       -0.048846198306        0.997611195718
        0.080757604061       -0.069616675732        0.994299616739
        0.128242375083       -0.085842227465        0.988020751410
        0.188485563951       -0.088652320274        0.978066438588
        0.248563359305       -0.068968686994        0.966157117981
        0.287150754965       -0.026289946757        0.957524559801
        0.287150754965        0.026289946757        0.957524559801
        0.248563359305        0.068968686994        0.966157117981
        0.188485563951        0.088652320274        0.978066438588
        0.128242375083        0.085842227465        0.988020751410
        0.080757604061        0.069616675732        0.994299616739
        0.048846198306        0.048846198306        0.997611195718
        0.030215635890        0.028312619448        0.999142337672
        0.021812598927        0.009213293824        0.999719623567
        0.028486832591       -0.014325296500        0.999491513845
        0.040954109767       -0.044968981002        0.998148561909
        0.069616675732       -0.080757604061        0.994299616739
        0.121523103458       -0.121523103458        0.985121449696
        0.204181285899       -0.159335636976        0.965878955811
        0.316336662162       -0.174362838706        0.932485236693
        0.433853265957       -0.141582391958        0.889789733536
        0.511143956261       -0.055149853180        0.857723935583
        0.511143956261        0.055149853180        0.857723935583
        0.433853265957        0.141582391958        0.889789733536
        0.316336662162        0.174362838706        0.932485236693
        0.204181285899        0.159335636976        0.965878955811
        0.121523103458        0.121523103458        0.985121449696
        0.069616675732        0.080757604061        0.994299616739
        0.040954109767        0.044968981002        0.998148561909
        0.028486832591        0.014325296500        0.999491513845
        0.031816910097       -0.021363277365        0.999265377471
        0.047727906099       -0.068531329399        0.996506650189
        0.085842227465       -0.128242375083        0.988020751410
        0.159335636976       -0.204181285899        0.965878955811
        0.285474557823       -0.285474557823        0.914881715673
        0.468680737186       -0.331329568235        0.818876720761
        0.667534474237       -0.279720576419        0.690039219779
        0.798265558496       -0.110770281502        0.592032129918
        0.798265558496        0.110770281502        0.592032129918
        0.667534474237        0.279720576419        0.690039219779
        0.468680737186        0.331329568235        0.818876720761
        0.285474557823        0.285474557823        0.914881715673
        0.159335636976        0.204181285899        0.965878955811
        0.085842227465        0.128242375083        0.988020751410
        0.047727906099        0.068531329399        0.996506650189
        0.031816910097        0.021363277365        0.999265377471
        0.029883796460       -0.029605679962        0.999114839457
        0.046719026312       -0.096915845636        0.994195479493
        0.088652320274       -0.188485563951        0.978066438588
        0.174362838706       -0.316336662162        0.932485236693
        0.331329568235       -0.468680737186        0.818876720761
        0.569308264229       -0.569308264229        0.593107242040
        0.822974946033       -0.488622211340        0.289759508537
        0.978838071843       -0.193000005868        0.068022252582
        0.978838071843        0.193000005868        0.068022252582
        0.822974946033        0.488622211340        0.289759508537
        0.569308264229        0.569308264229        0.593107242040
        0.331329568235        0.468680737186        0.818876720761
        0.174362838706        0.316336662162        0.932485236693
        0.088652320274        0.188485563951        0.978066438588
        0.046719026312        0.096915845636        0.994195479493
        0.029883796460        0.029605679962        0.999114839457
        0.021598499083       -0.037298854616        0.999070718359
        0.034886128547       -0.124052067495        0.991662262358
        0.068968686994       -0.248563359305        0.966157117981
        0.141582391958       -0.433853265957        0.889789733536
        0.279720576419       -0.667534474237        0.690039219779
        0.488622211340       -0.822974946033        0.289759508537
        0.690672816832       -0.690672816832       -0.214341130396
        0.795455316013       -0.264608756382       -0.545190834729
        0.795455316013        0.264608756382       -0.545190834729
        0.690672816832        0.690672816832       -0.214341130396
        0.488622211340        0.822974946033        0.289759508537
        0.279720576419        0.667534474237        0.690039219779
        0.141582391958        0.433853265957        0.889789733536
        0.068968686994        0.248563359305        0.966157117981
        0.034886128547        0.124052067495        0.991662262358
        0.021598499083        0.037298854616        0.999070718359
        0.007913161556       -0.042044204181        0.999084414236
        0.013011822427       -0.141048661876        0.989917151816
        0.026289946757       -0.287150754965        0.957524559801
        0.055149853180       -0.511143956261        0.857723935583
        0.110770281502       -0.798265558496        0.592032129918
        0.193000005868       -0.978838071843        0.068022252582
        0.264608756382       -0.795455316013       -0.545190834729
        0.295625642676       -0.295625642676       -0.908411227796
        0.295625642676        0.295625642676       -0.908411227796
        0.264608756382        0.795455316013       -0.545190834729
        0.193000005868        0.978838071843        0.068022252582
        0.110770281502        0.798265558496        0.592032129918
        0.055149853180        0.511143956261        0.857723935583
        0.026289946757        0.287150754965        0.957524559801
        0.013011822427        0.141048661876        0.989917151816
        0.007913161556        0.042044204181        0.999084414236
       -0.007913161556       -0.042044204181        0.999084414236
       -0.013011822427       -0.141048661876        0.989917151816
       -0.026289946757       -0.287150754965        0.957524559801
       -0.055149853180       -0.511143956261        0.857723935583
       -0.110770281502       -0.798265558496        0.592032129918
       -0.193000005868       -0.978838071843        0.068022252582
       -0.264608756382       -0.795455316013       -0.545190834729
       -0.295625642676       -0.295625642676       -0.908411227796
       -0.295625642676        0.295625642676       -0.908411227796
       -0.264608756382        0.795455316013       -0.545190834729
       -0.193000005868        0.978838071843        0.068022252582
       -0.110770281502        0.798265558496        0.592032129918
       -0.055149853180        0.511143956261        0.857723935583
       -0.026289946757        0.287150754965        0.957524559801
       -0.013011822427        0.141048661876        0.989917151816
       -0.007913161556        0.042044204181        0.999084414236
       -0.021598499083       -0.037298854616        0.999070718359
       -0.034886128547       -0.124052067495        0.991662262358
       -0.068968686994       -0.248563359305        0.966157117981
       -0.141582391958       -0.433853265957        0.889789733536
       -0.279720576419       -0.667534474237        0.690039219779
       -0.488622211340       -0.822974946033        0.289759508537
       -0.690672816832       -0.690672816832       -0.214341130396
       -0.795455316013       -0.264608756382       -0.545190834729
       -0.795455316013        0.264608756382       -0.545190834729
       -0.690672816832        0.690672816832       -0.214341130396
       -0.488622211340        0.822974946033        0.289759508537
       -0.279720576419        0.667534474237        0.690039219779
       -0.141582391958        0.433853265957        0.889789733536
       -0.068968686994        0.248563359305        0.966157117981
       -0.034886128547        0.124052067495        0.991662262358
       -0.021598499083        0.037298854616        0.999070718359
       -0.029883796460       -0.029605679962        0.999114839457
       -0.046719026312       -0.096915845636        0.994195479493
       -0.088652320274       -0.188485563951        0.978066438588
       -0.174362838706       -0.316336662162        0.932485236693
       -0.331329568235       -0.468680737186        0.818876720761
       -0.569308264229       -0.569308264229        0.593107242040
       -0.822974946033       -0.488622211340        0.289759508537
       -0.978838071843       -0.193000005868        0.068022252582
       -0.978838071843        0.193000005868        0.068022252582